/*--------------------------------*- C++ -*----------------------------------*\
  =========                 |
  \\      /  F ield         | OpenFOAM: The Open Source CFD Toolbox
   \\    /   O peration     | Website:  https://openfoam.org
    \\  /    A nd           | Version:  7
     \\/     M anipulation  |
\*---------------------------------------------------------------------------*/
FoamFile
{
    version     2.0;
    format      ascii;
    class       volScalarField;
    location    "9";
    object      gradTx;
}
// * * * * * * * * * * * * * * * * * * * * * * * * * * * * * * * * * * * * * //

dimensions      [0 -1 0 1 0 0 0];

internalField   nonuniform List<scalar> 8(5.66214e-15 -5.66214e-15 5.66214e-15 -5.66214e-15 5.66214e-15 -5.66214e-15 5.66214e-15 -5.66214e-15);

boundaryField
{
    lowerWall
    {
        type            calculated;
        value           nonuniform List<scalar> 2(5.66214e-15 -5.66214e-15);
    }
    upperWall
    {
        type            calculated;
        value           nonuniform List<scalar> 2(5.66214e-15 -5.66214e-15);
    }
    front
    {
        type            calculated;
        value           uniform 0;
    }
    back
    {
        type            calculated;
        value           uniform 0;
    }
    defaultFaces
    {
        type            calculated;
        value           nonuniform List<scalar> 
16
(
5.66214e-15
5.66214e-15
-5.66214e-15
-5.66214e-15
5.66214e-15
5.66214e-15
-5.66214e-15
-5.66214e-15
5.66214e-15
5.66214e-15
-5.66214e-15
-5.66214e-15
5.66214e-15
5.66214e-15
-5.66214e-15
-5.66214e-15
)
;
    }
}


// ************************************************************************* //
