/*--------------------------------*- C++ -*----------------------------------*\
  =========                 |
  \\      /  F ield         | OpenFOAM: The Open Source CFD Toolbox
   \\    /   O peration     | Website:  https://openfoam.org
    \\  /    A nd           | Version:  7
     \\/     M anipulation  |
\*---------------------------------------------------------------------------*/
FoamFile
{
    version     2.0;
    format      ascii;
    class       volScalarField;
    location    "4";
    object      gradTy;
}
// * * * * * * * * * * * * * * * * * * * * * * * * * * * * * * * * * * * * * //

dimensions      [0 -1 0 1 0 0 0];

internalField   nonuniform List<scalar> 8(2.60902e-14 2.60902e-14 0 0 0 0 -2.60902e-14 -2.60902e-14);

boundaryField
{
    lowerWall
    {
        type            calculated;
        value           uniform 0;
    }
    upperWall
    {
        type            calculated;
        value           uniform 0;
    }
    front
    {
        type            calculated;
        value           nonuniform List<scalar> 4(2.60902e-14 0 0 -2.60902e-14);
    }
    back
    {
        type            calculated;
        value           nonuniform List<scalar> 4(2.60902e-14 0 0 -2.60902e-14);
    }
    defaultFaces
    {
        type            calculated;
        value           nonuniform List<scalar> 
16
(
2.60902e-14
0
2.60902e-14
0
2.60902e-14
0
2.60902e-14
0
0
-2.60902e-14
0
-2.60902e-14
0
-2.60902e-14
0
-2.60902e-14
)
;
    }
}


// ************************************************************************* //
