/*--------------------------------*- C++ -*----------------------------------*\
| =========                 |                                                 |
| \\      /  F ield         | OpenFOAM: The Open Source CFD Toolbox           |
|  \\    /   O peration     | Version:  4.1                                   |
|   \\  /    A nd           | Web:      www.OpenFOAM.org                      |
|    \\/     M anipulation  |                                                 |
\*---------------------------------------------------------------------------*/
FoamFile
{
    version     2.0;
    format      ascii;
    class       volScalarField;
    location    "1000";
    object      epsilon;
}
// * * * * * * * * * * * * * * * * * * * * * * * * * * * * * * * * * * * * * //

dimensions      [0 2 -3 0 0 0 0];

internalField   nonuniform List<scalar> 
80
(
78.3124
30.9701
17.2289
11.3867
8.24588
6.32048
5.04293
4.15055
3.50431
3.02335
2.6574
2.37369
2.15012
1.97133
1.82647
1.70769
1.60922
1.52678
1.45713
1.39779
1.34686
1.30285
1.26458
1.23114
1.20178
1.17591
1.15307
1.13286
1.11499
1.09921
1.08532
1.07315
1.06259
1.05352
1.04588
1.03959
1.03461
1.03091
1.02845
1.02723
1.02723
1.02846
1.03091
1.03462
1.0396
1.04589
1.05354
1.06261
1.07318
1.08534
1.09924
1.11502
1.1329
1.1531
1.17595
1.20182
1.23118
1.26462
1.30289
1.34691
1.39784
1.45717
1.52682
1.60926
1.70773
1.82651
1.97136
2.15014
2.37371
2.65741
3.02335
3.5043
4.15053
5.04289
6.32042
8.2458
11.3866
17.2288
30.9699
78.312
)
;

boundaryField
{
    lowerWall
    {
        Cmu             0.09;
        kappa           0.41;
        E               9.8;
        type            epsilonWallFunction;
        value           uniform 78.3124;
    }
    upperWall
    {
        Cmu             0.09;
        kappa           0.41;
        E               9.8;
        type            epsilonWallFunction;
        value           uniform 78.312;
    }
    front
    {
        type            cyclic;
    }
    back
    {
        type            cyclic;
    }
    defaultFaces
    {
        type            empty;
    }
}


// ************************************************************************* //
