/*--------------------------------*- C++ -*----------------------------------*\
| =========                 |                                                 |
| \\      /  F ield         | OpenFOAM: The Open Source CFD Toolbox           |
|  \\    /   O peration     | Version:  4.1                                   |
|   \\  /    A nd           | Web:      www.OpenFOAM.org                      |
|    \\/     M anipulation  |                                                 |
\*---------------------------------------------------------------------------*/
FoamFile
{
    version     2.0;
    format      ascii;
    class       volSymmTensorField;
    location    "1000";
    object      R;
}
// * * * * * * * * * * * * * * * * * * * * * * * * * * * * * * * * * * * * * //

dimensions      [0 2 -2 0 0 0 0];

internalField   nonuniform List<symmTensor> 
80
(
(0.164078 -0.461196 -0 0.164078 -0 0.164078)
(0.167209 -0.078496 -0 0.167209 -0 0.167209)
(0.156714 -0.0704628 -0 0.156714 -0 0.156714)
(0.149516 -0.0669679 -0 0.149516 -0 0.149516)
(0.144245 -0.0641166 -0 0.144245 -0 0.144245)
(0.140328 -0.0615573 -0 0.140328 -0 0.140328)
(0.137481 -0.0591884 -0 0.137481 -0 0.137481)
(0.13551 -0.0569828 -0 0.13551 -0 0.13551)
(0.134261 -0.0549379 -0 0.134261 -0 0.134261)
(0.133595 -0.0530566 -0 0.133595 -0 0.133595)
(0.133393 -0.0513399 -0 0.133393 -0 0.133393)
(0.133553 -0.0497842 -0 0.133553 -0 0.133553)
(0.133988 -0.0483799 -0 0.133988 -0 0.133988)
(0.134628 -0.0471127 -0 0.134628 -0 0.134628)
(0.135414 -0.0459633 -0 0.135414 -0 0.135414)
(0.136301 -0.0449096 -0 0.136301 -0 0.136301)
(0.137253 -0.0439269 -0 0.137253 -0 0.137253)
(0.138238 -0.0429895 -0 0.138238 -0 0.138238)
(0.139235 -0.0420714 -0 0.139235 -0 0.139235)
(0.140224 -0.0411471 -0 0.140224 -0 0.140224)
(0.141192 -0.0401922 -0 0.141192 -0 0.141192)
(0.142127 -0.039184 -0 0.142127 -0 0.142127)
(0.143021 -0.0381018 -0 0.143021 -0 0.143021)
(0.143868 -0.0369274 -0 0.143868 -0 0.143868)
(0.144664 -0.0356452 -0 0.144664 -0 0.144664)
(0.145404 -0.0342424 -0 0.145404 -0 0.145404)
(0.146088 -0.0327091 -0 0.146088 -0 0.146088)
(0.146716 -0.0310383 -0 0.146716 -0 0.146716)
(0.147286 -0.0292261 -0 0.147286 -0 0.147286)
(0.1478 -0.0272714 -0 0.1478 -0 0.1478)
(0.14826 -0.025176 -0 0.14826 -0 0.14826)
(0.148666 -0.0229442 -0 0.148666 -0 0.148666)
(0.14902 -0.020583 -0 0.14902 -0 0.14902)
(0.149325 -0.0181018 -0 0.149325 -0 0.149325)
(0.149582 -0.0155119 -0 0.149582 -0 0.149582)
(0.149793 -0.0128269 -0 0.149793 -0 0.149793)
(0.14996 -0.0100616 -0 0.14996 -0 0.14996)
(0.150083 -0.00723253 -0 0.150083 -0 0.150083)
(0.150165 -0.00435705 -0 0.150165 -0 0.150165)
(0.150206 -0.00145344 -0 0.150206 -0 0.150206)
(0.150206 0.0014596 -0 0.150206 -0 0.150206)
(0.150166 0.00436319 -0 0.150166 -0 0.150166)
(0.150084 0.00723862 -0 0.150084 -0 0.150084)
(0.14996 0.0100676 -0 0.14996 -0 0.14996)
(0.149794 0.0128328 -0 0.149794 -0 0.149794)
(0.149583 0.0155178 -0 0.149583 -0 0.149583)
(0.149326 0.0181074 -0 0.149326 -0 0.149326)
(0.149022 0.0205885 -0 0.149022 -0 0.149022)
(0.148668 0.0229495 -0 0.148668 -0 0.148668)
(0.148262 0.0251812 -0 0.148262 -0 0.148262)
(0.147803 0.0272764 -0 0.147803 -0 0.147803)
(0.147289 0.0292309 -0 0.147289 -0 0.147289)
(0.146719 0.0310429 -0 0.146719 -0 0.146719)
(0.146091 0.0327134 -0 0.146091 -0 0.146091)
(0.145407 0.0342464 -0 0.145407 -0 0.145407)
(0.144667 0.035649 -0 0.144667 -0 0.144667)
(0.143872 0.0369309 -0 0.143872 -0 0.143872)
(0.143025 0.0381051 -0 0.143025 -0 0.143025)
(0.14213 0.039187 -0 0.14213 -0 0.14213)
(0.141195 0.0401949 -0 0.141195 -0 0.141195)
(0.140227 0.0411496 -0 0.140227 -0 0.140227)
(0.139238 0.0420736 -0 0.139238 -0 0.139238)
(0.138241 0.0429914 -0 0.138241 -0 0.138241)
(0.137256 0.0439285 -0 0.137256 -0 0.137256)
(0.136304 0.044911 -0 0.136304 -0 0.136304)
(0.135417 0.0459645 -0 0.135417 -0 0.135417)
(0.13463 0.0471136 -0 0.13463 -0 0.13463)
(0.13399 0.0483807 -0 0.13399 -0 0.13399)
(0.133555 0.0497847 -0 0.133555 -0 0.133555)
(0.133395 0.0513403 -0 0.133395 -0 0.133395)
(0.133597 0.0530569 -0 0.133597 -0 0.133597)
(0.134262 0.0549381 -0 0.134262 -0 0.134262)
(0.135511 0.0569828 -0 0.135511 -0 0.135511)
(0.137481 0.0591883 -0 0.137481 -0 0.137481)
(0.140328 0.0615572 -0 0.140328 -0 0.140328)
(0.144245 0.0641164 -0 0.144245 -0 0.144245)
(0.149516 0.0669677 -0 0.149516 -0 0.149516)
(0.156714 0.0704626 -0 0.156714 -0 0.156714)
(0.167209 0.0784958 -0 0.167209 -0 0.167209)
(0.164078 0.461194 -0 0.164078 -0 0.164078)
)
;

boundaryField
{
    lowerWall
    {
        type            kqRWallFunction;
        value           uniform (0.164078 -0.0733391 -0 0.164078 -0 0.164078);
    }
    upperWall
    {
        type            kqRWallFunction;
        value           uniform (0.164078 0.0733389 -0 0.164078 -0 0.164078);
    }
    front
    {
        type            cyclic;
    }
    back
    {
        type            cyclic;
    }
    defaultFaces
    {
        type            empty;
    }
}


// ************************************************************************* //
