/*--------------------------------*- C++ -*----------------------------------*\
| =========                 |                                                 |
| \\      /  F ield         | OpenFOAM: The Open Source CFD Toolbox           |
|  \\    /   O peration     | Version:  4.1                                   |
|   \\  /    A nd           | Web:      www.OpenFOAM.org                      |
|    \\/     M anipulation  |                                                 |
\*---------------------------------------------------------------------------*/
FoamFile
{
    version     2.0;
    format      ascii;
    class       volVectorField;
    location    "1000";
    object      U;
}
// * * * * * * * * * * * * * * * * * * * * * * * * * * * * * * * * * * * * * //

dimensions      [0 1 -1 0 0 0 0];

internalField   nonuniform List<vector> 
80
(
(7.92793 0 0)
(8.6347 0 0)
(9.00139 0 0)
(9.24497 0 0)
(9.42251 0 0)
(9.55867 0 0)
(9.66644 0 0)
(9.75363 0 0)
(9.82544 0 0)
(9.88549 0 0)
(9.9364 0 0)
(9.98015 0 0)
(10.0182 0 0)
(10.0517 0 0)
(10.0815 0 0)
(10.1082 0 0)
(10.1324 0 0)
(10.1545 0 0)
(10.1748 0 0)
(10.1936 0 0)
(10.2109 0 0)
(10.2271 0 0)
(10.2421 0 0)
(10.2562 0 0)
(10.2693 0 0)
(10.2814 0 0)
(10.2928 0 0)
(10.3033 0 0)
(10.3129 0 0)
(10.3218 0 0)
(10.3299 0 0)
(10.3372 0 0)
(10.3436 0 0)
(10.3493 0 0)
(10.3542 0 0)
(10.3583 0 0)
(10.3615 0 0)
(10.364 0 0)
(10.3656 0 0)
(10.3664 0 0)
(10.3664 0 0)
(10.3656 0 0)
(10.364 0 0)
(10.3615 0 0)
(10.3583 0 0)
(10.3542 0 0)
(10.3493 0 0)
(10.3436 0 0)
(10.3371 0 0)
(10.3299 0 0)
(10.3218 0 0)
(10.3129 0 0)
(10.3032 0 0)
(10.2927 0 0)
(10.2814 0 0)
(10.2692 0 0)
(10.2561 0 0)
(10.2421 0 0)
(10.2271 0 0)
(10.2109 0 0)
(10.1935 0 0)
(10.1748 0 0)
(10.1545 0 0)
(10.1324 0 0)
(10.1082 0 0)
(10.0814 0 0)
(10.0516 0 0)
(10.0182 0 0)
(9.98012 0 0)
(9.93637 0 0)
(9.88546 0 0)
(9.82542 0 0)
(9.75361 0 0)
(9.66641 0 0)
(9.55865 0 0)
(9.42249 0 0)
(9.24495 0 0)
(9.00138 0 0)
(8.63469 0 0)
(7.92792 0 0)
)
;

boundaryField
{
    lowerWall
    {
        type            noSlip;
    }
    upperWall
    {
        type            noSlip;
    }
    front
    {
        type            cyclic;
    }
    back
    {
        type            cyclic;
    }
    defaultFaces
    {
        type            empty;
    }
}


// ************************************************************************* //
